# vtk DataFile Version 4.2 
FEM simulated result 
DATASET UNSTRUCTURED_GRID 
POINTS 726 float 
0.0 0.0 0.0 
500.0 0.0 0.0 
1000.0 0.0 0.0 
1500.0 0.0 0.0 
2000.0 0.0 0.0 
2500.0 0.0 0.0 
3000.0 0.0 0.0 
3500.0 0.0 0.0 
4000.0 0.0 0.0 
4500.0 0.0 0.0 
5000.0 0.0 0.0 
0.0 500.0 0.0 
500.0 500.0 0.0 
1000.0 500.0 0.0 
1500.0 500.0 0.0 
2000.0 500.0 0.0 
2500.0 500.0 0.0 
3000.0 500.0 0.0 
3500.0 500.0 0.0 
4000.0 500.0 0.0 
4500.0 500.0 0.0 
5000.0 500.0 0.0 
0.0 1000.0 0.0 
500.0 1000.0 0.0 
1000.0 1000.0 0.0 
1500.0 1000.0 0.0 
2000.0 1000.0 0.0 
2500.0 1000.0 0.0 
3000.0 1000.0 0.0 
3500.0 1000.0 0.0 
4000.0 1000.0 0.0 
4500.0 1000.0 0.0 
5000.0 1000.0 0.0 
0.0 1500.0 0.0 
500.0 1500.0 0.0 
1000.0 1500.0 0.0 
1500.0 1500.0 0.0 
2000.0 1500.0 0.0 
2500.0 1500.0 0.0 
3000.0 1500.0 0.0 
3500.0 1500.0 0.0 
4000.0 1500.0 0.0 
4500.0 1500.0 0.0 
5000.0 1500.0 0.0 
0.0 2000.0 0.0 
500.0 2000.0 0.0 
1000.0 2000.0 0.0 
1500.0 2000.0 0.0 
2000.0 2000.0 0.0 
2500.0 2000.0 0.0 
3000.0 2000.0 0.0 
3500.0 2000.0 0.0 
4000.0 2000.0 0.0 
4500.0 2000.0 0.0 
5000.0 2000.0 0.0 
0.0 2500.0 0.0 
500.0 2500.0 0.0 
1000.0 2500.0 0.0 
1500.0 2500.0 0.0 
2000.0 2500.0 0.0 
2500.0 2500.0 0.0 
3000.0 2500.0 0.0 
3500.0 2500.0 0.0 
4000.0 2500.0 0.0 
4500.0 2500.0 0.0 
5000.0 2500.0 0.0 
0.0 3000.0 0.0 
500.0 3000.0 0.0 
1000.0 3000.0 0.0 
1500.0 3000.0 0.0 
2000.0 3000.0 0.0 
2500.0 3000.0 0.0 
3000.0 3000.0 0.0 
3500.0 3000.0 0.0 
4000.0 3000.0 0.0 
4500.0 3000.0 0.0 
5000.0 3000.0 0.0 
0.0 3500.0 0.0 
500.0 3500.0 0.0 
1000.0 3500.0 0.0 
1500.0 3500.0 0.0 
2000.0 3500.0 0.0 
2500.0 3500.0 0.0 
3000.0 3500.0 0.0 
3500.0 3500.0 0.0 
4000.0 3500.0 0.0 
4500.0 3500.0 0.0 
5000.0 3500.0 0.0 
0.0 4000.0 0.0 
500.0 4000.0 0.0 
1000.0 4000.0 0.0 
1500.0 4000.0 0.0 
2000.0 4000.0 0.0 
2500.0 4000.0 0.0 
3000.0 4000.0 0.0 
3500.0 4000.0 0.0 
4000.0 4000.0 0.0 
4500.0 4000.0 0.0 
5000.0 4000.0 0.0 
0.0 4500.0 0.0 
500.0 4500.0 0.0 
1000.0 4500.0 0.0 
1500.0 4500.0 0.0 
2000.0 4500.0 0.0 
2500.0 4500.0 0.0 
3000.0 4500.0 0.0 
3500.0 4500.0 0.0 
4000.0 4500.0 0.0 
4500.0 4500.0 0.0 
5000.0 4500.0 0.0 
0.0 5000.0 0.0 
500.0 5000.0 0.0 
1000.0 5000.0 0.0 
1500.0 5000.0 0.0 
2000.0 5000.0 0.0 
2500.0 5000.0 0.0 
3000.0 5000.0 0.0 
3500.0 5000.0 0.0 
4000.0 5000.0 0.0 
4500.0 5000.0 0.0 
5000.0 5000.0 0.0 
0.0 0.0 500.0 
500.0 0.0 500.0 
1000.0 0.0 500.0 
1500.0 0.0 500.0 
2000.0 0.0 500.0 
2500.0 0.0 500.0 
3000.0 0.0 500.0 
3500.0 0.0 500.0 
4000.0 0.0 500.0 
4500.0 0.0 500.0 
5000.0 0.0 500.0 
0.0 500.0 500.0 
500.0 500.0 500.0 
1000.0 500.0 500.0 
1500.0 500.0 500.0 
2000.0 500.0 500.0 
2500.0 500.0 500.0 
3000.0 500.0 500.0 
3500.0 500.0 500.0 
4000.0 500.0 500.0 
4500.0 500.0 500.0 
5000.0 500.0 500.0 
0.0 1000.0 500.0 
500.0 1000.0 500.0 
1000.0 1000.0 500.0 
1500.0 1000.0 500.0 
2000.0 1000.0 500.0 
2500.0 1000.0 500.0 
3000.0 1000.0 500.0 
3500.0 1000.0 500.0 
4000.0 1000.0 500.0 
4500.0 1000.0 500.0 
5000.0 1000.0 500.0 
0.0 1500.0 500.0 
500.0 1500.0 500.0 
1000.0 1500.0 500.0 
1500.0 1500.0 500.0 
2000.0 1500.0 500.0 
2500.0 1500.0 500.0 
3000.0 1500.0 500.0 
3500.0 1500.0 500.0 
4000.0 1500.0 500.0 
4500.0 1500.0 500.0 
5000.0 1500.0 500.0 
0.0 2000.0 500.0 
500.0 2000.0 500.0 
1000.0 2000.0 500.0 
1500.0 2000.0 500.0 
2000.0 2000.0 500.0 
2500.0 2000.0 500.0 
3000.0 2000.0 500.0 
3500.0 2000.0 500.0 
4000.0 2000.0 500.0 
4500.0 2000.0 500.0 
5000.0 2000.0 500.0 
0.0 2500.0 500.0 
500.0 2500.0 500.0 
1000.0 2500.0 500.0 
1500.0 2500.0 500.0 
2000.0 2500.0 500.0 
2500.0 2500.0 500.0 
3000.0 2500.0 500.0 
3500.0 2500.0 500.0 
4000.0 2500.0 500.0 
4500.0 2500.0 500.0 
5000.0 2500.0 500.0 
0.0 3000.0 500.0 
500.0 3000.0 500.0 
1000.0 3000.0 500.0 
1500.0 3000.0 500.0 
2000.0 3000.0 500.0 
2500.0 3000.0 500.0 
3000.0 3000.0 500.0 
3500.0 3000.0 500.0 
4000.0 3000.0 500.0 
4500.0 3000.0 500.0 
5000.0 3000.0 500.0 
0.0 3500.0 500.0 
500.0 3500.0 500.0 
1000.0 3500.0 500.0 
1500.0 3500.0 500.0 
2000.0 3500.0 500.0 
2500.0 3500.0 500.0 
3000.0 3500.0 500.0 
3500.0 3500.0 500.0 
4000.0 3500.0 500.0 
4500.0 3500.0 500.0 
5000.0 3500.0 500.0 
0.0 4000.0 500.0 
500.0 4000.0 500.0 
1000.0 4000.0 500.0 
1500.0 4000.0 500.0 
2000.0 4000.0 500.0 
2500.0 4000.0 500.0 
3000.0 4000.0 500.0 
3500.0 4000.0 500.0 
4000.0 4000.0 500.0 
4500.0 4000.0 500.0 
5000.0 4000.0 500.0 
0.0 4500.0 500.0 
500.0 4500.0 500.0 
1000.0 4500.0 500.0 
1500.0 4500.0 500.0 
2000.0 4500.0 500.0 
2500.0 4500.0 500.0 
3000.0 4500.0 500.0 
3500.0 4500.0 500.0 
4000.0 4500.0 500.0 
4500.0 4500.0 500.0 
5000.0 4500.0 500.0 
0.0 5000.0 500.0 
500.0 5000.0 500.0 
1000.0 5000.0 500.0 
1500.0 5000.0 500.0 
2000.0 5000.0 500.0 
2500.0 5000.0 500.0 
3000.0 5000.0 500.0 
3500.0 5000.0 500.0 
4000.0 5000.0 500.0 
4500.0 5000.0 500.0 
5000.0 5000.0 500.0 
0.0 0.0 1000.0 
500.0 0.0 1000.0 
1000.0 0.0 1000.0 
1500.0 0.0 1000.0 
2000.0 0.0 1000.0 
2500.0 0.0 1000.0 
3000.0 0.0 1000.0 
3500.0 0.0 1000.0 
4000.0 0.0 1000.0 
4500.0 0.0 1000.0 
5000.0 0.0 1000.0 
0.0 500.0 1000.0 
500.0 500.0 1000.0 
1000.0 500.0 1000.0 
1500.0 500.0 1000.0 
2000.0 500.0 1000.0 
2500.0 500.0 1000.0 
3000.0 500.0 1000.0 
3500.0 500.0 1000.0 
4000.0 500.0 1000.0 
4500.0 500.0 1000.0 
5000.0 500.0 1000.0 
0.0 1000.0 1000.0 
500.0 1000.0 1000.0 
1000.0 1000.0 1000.0 
1500.0 1000.0 1000.0 
2000.0 1000.0 1000.0 
2500.0 1000.0 1000.0 
3000.0 1000.0 1000.0 
3500.0 1000.0 1000.0 
4000.0 1000.0 1000.0 
4500.0 1000.0 1000.0 
5000.0 1000.0 1000.0 
0.0 1500.0 1000.0 
500.0 1500.0 1000.0 
1000.0 1500.0 1000.0 
1500.0 1500.0 1000.0 
2000.0 1500.0 1000.0 
2500.0 1500.0 1000.0 
3000.0 1500.0 1000.0 
3500.0 1500.0 1000.0 
4000.0 1500.0 1000.0 
4500.0 1500.0 1000.0 
5000.0 1500.0 1000.0 
0.0 2000.0 1000.0 
500.0 2000.0 1000.0 
1000.0 2000.0 1000.0 
1500.0 2000.0 1000.0 
2000.0 2000.0 1000.0 
2500.0 2000.0 1000.0 
3000.0 2000.0 1000.0 
3500.0 2000.0 1000.0 
4000.0 2000.0 1000.0 
4500.0 2000.0 1000.0 
5000.0 2000.0 1000.0 
0.0 2500.0 1000.0 
500.0 2500.0 1000.0 
1000.0 2500.0 1000.0 
1500.0 2500.0 1000.0 
2000.0 2500.0 1000.0 
2500.0 2500.0 1000.0 
3000.0 2500.0 1000.0 
3500.0 2500.0 1000.0 
4000.0 2500.0 1000.0 
4500.0 2500.0 1000.0 
5000.0 2500.0 1000.0 
0.0 3000.0 1000.0 
500.0 3000.0 1000.0 
1000.0 3000.0 1000.0 
1500.0 3000.0 1000.0 
2000.0 3000.0 1000.0 
2500.0 3000.0 1000.0 
3000.0 3000.0 1000.0 
3500.0 3000.0 1000.0 
4000.0 3000.0 1000.0 
4500.0 3000.0 1000.0 
5000.0 3000.0 1000.0 
0.0 3500.0 1000.0 
500.0 3500.0 1000.0 
1000.0 3500.0 1000.0 
1500.0 3500.0 1000.0 
2000.0 3500.0 1000.0 
2500.0 3500.0 1000.0 
3000.0 3500.0 1000.0 
3500.0 3500.0 1000.0 
4000.0 3500.0 1000.0 
4500.0 3500.0 1000.0 
5000.0 3500.0 1000.0 
0.0 4000.0 1000.0 
500.0 4000.0 1000.0 
1000.0 4000.0 1000.0 
1500.0 4000.0 1000.0 
2000.0 4000.0 1000.0 
2500.0 4000.0 1000.0 
3000.0 4000.0 1000.0 
3500.0 4000.0 1000.0 
4000.0 4000.0 1000.0 
4500.0 4000.0 1000.0 
5000.0 4000.0 1000.0 
0.0 4500.0 1000.0 
500.0 4500.0 1000.0 
1000.0 4500.0 1000.0 
1500.0 4500.0 1000.0 
2000.0 4500.0 1000.0 
2500.0 4500.0 1000.0 
3000.0 4500.0 1000.0 
3500.0 4500.0 1000.0 
4000.0 4500.0 1000.0 
4500.0 4500.0 1000.0 
5000.0 4500.0 1000.0 
0.0 5000.0 1000.0 
500.0 5000.0 1000.0 
1000.0 5000.0 1000.0 
1500.0 5000.0 1000.0 
2000.0 5000.0 1000.0 
2500.0 5000.0 1000.0 
3000.0 5000.0 1000.0 
3500.0 5000.0 1000.0 
4000.0 5000.0 1000.0 
4500.0 5000.0 1000.0 
5000.0 5000.0 1000.0 
0.0 0.0 1500.0 
500.0 0.0 1500.0 
1000.0 0.0 1500.0 
1500.0 0.0 1500.0 
2000.0 0.0 1500.0 
2500.0 0.0 1500.0 
3000.0 0.0 1500.0 
3500.0 0.0 1500.0 
4000.0 0.0 1500.0 
4500.0 0.0 1500.0 
5000.0 0.0 1500.0 
0.0 500.0 1500.0 
500.0 500.0 1500.0 
1000.0 500.0 1500.0 
1500.0 500.0 1500.0 
2000.0 500.0 1500.0 
2500.0 500.0 1500.0 
3000.0 500.0 1500.0 
3500.0 500.0 1500.0 
4000.0 500.0 1500.0 
4500.0 500.0 1500.0 
5000.0 500.0 1500.0 
0.0 1000.0 1500.0 
500.0 1000.0 1500.0 
1000.0 1000.0 1500.0 
1500.0 1000.0 1500.0 
2000.0 1000.0 1500.0 
2500.0 1000.0 1500.0 
3000.0 1000.0 1500.0 
3500.0 1000.0 1500.0 
4000.0 1000.0 1500.0 
4500.0 1000.0 1500.0 
5000.0 1000.0 1500.0 
0.0 1500.0 1500.0 
500.0 1500.0 1500.0 
1000.0 1500.0 1500.0 
1500.0 1500.0 1500.0 
2000.0 1500.0 1500.0 
2500.0 1500.0 1500.0 
3000.0 1500.0 1500.0 
3500.0 1500.0 1500.0 
4000.0 1500.0 1500.0 
4500.0 1500.0 1500.0 
5000.0 1500.0 1500.0 
0.0 2000.0 1500.0 
500.0 2000.0 1500.0 
1000.0 2000.0 1500.0 
1500.0 2000.0 1500.0 
2000.0 2000.0 1500.0 
2500.0 2000.0 1500.0 
3000.0 2000.0 1500.0 
3500.0 2000.0 1500.0 
4000.0 2000.0 1500.0 
4500.0 2000.0 1500.0 
5000.0 2000.0 1500.0 
0.0 2500.0 1500.0 
500.0 2500.0 1500.0 
1000.0 2500.0 1500.0 
1500.0 2500.0 1500.0 
2000.0 2500.0 1500.0 
2500.0 2500.0 1500.0 
3000.0 2500.0 1500.0 
3500.0 2500.0 1500.0 
4000.0 2500.0 1500.0 
4500.0 2500.0 1500.0 
5000.0 2500.0 1500.0 
0.0 3000.0 1500.0 
500.0 3000.0 1500.0 
1000.0 3000.0 1500.0 
1500.0 3000.0 1500.0 
2000.0 3000.0 1500.0 
2500.0 3000.0 1500.0 
3000.0 3000.0 1500.0 
3500.0 3000.0 1500.0 
4000.0 3000.0 1500.0 
4500.0 3000.0 1500.0 
5000.0 3000.0 1500.0 
0.0 3500.0 1500.0 
500.0 3500.0 1500.0 
1000.0 3500.0 1500.0 
1500.0 3500.0 1500.0 
2000.0 3500.0 1500.0 
2500.0 3500.0 1500.0 
3000.0 3500.0 1500.0 
3500.0 3500.0 1500.0 
4000.0 3500.0 1500.0 
4500.0 3500.0 1500.0 
5000.0 3500.0 1500.0 
0.0 4000.0 1500.0 
500.0 4000.0 1500.0 
1000.0 4000.0 1500.0 
1500.0 4000.0 1500.0 
2000.0 4000.0 1500.0 
2500.0 4000.0 1500.0 
3000.0 4000.0 1500.0 
3500.0 4000.0 1500.0 
4000.0 4000.0 1500.0 
4500.0 4000.0 1500.0 
5000.0 4000.0 1500.0 
0.0 4500.0 1500.0 
500.0 4500.0 1500.0 
1000.0 4500.0 1500.0 
1500.0 4500.0 1500.0 
2000.0 4500.0 1500.0 
2500.0 4500.0 1500.0 
3000.0 4500.0 1500.0 
3500.0 4500.0 1500.0 
4000.0 4500.0 1500.0 
4500.0 4500.0 1500.0 
5000.0 4500.0 1500.0 
0.0 5000.0 1500.0 
500.0 5000.0 1500.0 
1000.0 5000.0 1500.0 
1500.0 5000.0 1500.0 
2000.0 5000.0 1500.0 
2500.0 5000.0 1500.0 
3000.0 5000.0 1500.0 
3500.0 5000.0 1500.0 
4000.0 5000.0 1500.0 
4500.0 5000.0 1500.0 
5000.0 5000.0 1500.0 
0.0 0.0 2000.0 
500.0 0.0 2000.0 
1000.0 0.0 2000.0 
1500.0 0.0 2000.0 
2000.0 0.0 2000.0 
[...]
POINT_DATA 726 
VECTORS displacement float 
LOOKUP_TABLE default 
-0.0008734772258281953 -0.000504302311456272 0.0 
-0.0008734772258284306 -0.0005043023114588554 0.0 
-0.0008734772258285686 -0.0005043023114595504 0.0 
-0.0008734772258292123 -0.0005043023114607096 0.0 
-0.0008734772258268676 -0.0005043023114612354 0.0 
-0.000873477225826262 -0.0005043023114611944 0.0 
-0.0008734772258271829 -0.0005043023114633684 0.0 
-0.0008734772258264836 -0.0005043023114641745 0.0 
-0.0008734772258257287 -0.0005043023114650643 0.0 
-0.0008734772258271414 -0.0005043023114659262 0.0 
-0.0008734772258277887 -0.0005043023114692136 0.0 
-0.0008734772258282259 -0.0005043023114559272 0.0 
-0.0008734772258266021 -0.0005043023114578529 -5.628085409624033e-16 
-0.0008734772258272201 -0.0005043023114597537 3.46903340539153e-16 
-0.0008734772258266966 -0.0005043023114600378 6.645591411997395e-16 
-0.0008734772258275179 -0.0005043023114613358 -1.598817001283167e-16 
-0.0008734772258262414 -0.0005043023114619001 -1.2331123128293255e-16 
-0.0008734772258271649 -0.0005043023114628059 1.279851056778054e-16 
-0.0008734772258267848 -0.0005043023114642579 -4.877710746959935e-16 
-0.000873477225826091 -0.0005043023114659995 6.579840739416223e-17 
-0.0008734772258254502 -0.0005043023114661653 5.818988763342552e-16 
-0.0008734772258275396 -0.0005043023114681422 0.0 
-0.000873477225826061 -0.0005043023114559671 0.0 
-0.000873477225826336 -0.0005043023114575047 -6.095289070134133e-16 
-0.0008734772258261017 -0.0005043023114590572 3.027777629375993e-16 
-0.0008734772258266614 -0.0005043023114597342 -5.9522297948078555e-16 
-0.0008734772258264883 -0.0005043023114624472 5.278370591346829e-17 
-0.000873477225825661 -0.0005043023114614184 -2.9877944073090334e-16 
-0.0008734772258258233 -0.0005043023114631982 -4.3516139205188475e-16 
-0.0008734772258254077 -0.0005043023114641672 3.3521252097725106e-16 
-0.0008734772258258564 -0.0005043023114663572 6.507162147992648e-16 
-0.0008734772258258176 -0.0005043023114664788 6.50216936233156e-17 
-0.0008734772258267165 -0.0005043023114668745 0.0 
-0.0008734772258242517 -0.0005043023114565023 0.0 
-0.0008734772258251662 -0.0005043023114574064 1.4154046592130756e-16 
-0.0008734772258249885 -0.000504302311458377 -2.1998629151572324e-16 
-0.0008734772258249218 -0.0005043023114592914 1.5504719275026113e-16 
-0.0008734772258246385 -0.000504302311461302 -4.740039952463055e-16 
-0.000873477225823665 -0.0005043023114622167 1.554525154559784e-16 
-0.0008734772258251146 -0.0005043023114627033 -2.396613359213152e-16 
-0.0008734772258244124 -0.0005043023114639293 1.455417517398652e-16 
-0.000873477225824618 -0.0005043023114663696 -4.3160412829386524e-16 
-0.0008734772258246575 -0.0005043023114653278 5.664221813216694e-16 
-0.0008734772258246428 -0.000504302311466879 0.0 
-0.0008734772258248303 -0.0005043023114567815 0.0 
-0.0008734772258250309 -0.0005043023114567268 -1.2048092672573684e-16 
-0.0008734772258251257 -0.0005043023114588926 -4.2603671947210805e-16 
-0.000873477225823456 -0.0005043023114601261 -4.051959933711246e-16 
-0.0008734772258231247 -0.0005043023114604255 -1.5110158365568602e-16 
-0.0008734772258222838 -0.0005043023114614137 3.968649453252274e-17 
-0.000873477225823616 -0.0005043023114630215 1.212307472169514e-16 
-0.0008734772258236405 -0.0005043023114649714 -2.2227998300248486e-16 
-0.0008734772258229642 -0.0005043023114650133 3.9022261691739647e-16 
-0.000873477225824341 -0.0005043023114659995 -4.244611844760882e-16 
-0.000873477225824958 -0.0005043023114666533 0.0 
-0.000873477225822418 -0.0005043023114552252 0.0 
-0.0008734772258219714 -0.0005043023114568361 -2.3498899455506113e-16 
-0.0008734772258234023 -0.0005043023114578766 -2.5226300892282087e-16 
-0.0008734772258231669 -0.0005043023114597641 -4.460747744422122e-16 
-0.0008734772258245666 -0.0005043023114612208 -1.8556524163403538e-16 
-0.0008734772258237473 -0.0005043023114624535 3.8821482431164157e-16 
-0.0008734772258229014 -0.0005043023114617212 -1.553335290815194e-16 
-0.0008734772258239599 -0.0005043023114643323 -1.6807823904931775e-16 
-0.0008734772258236431 -0.0005043023114655235 -2.7294705499982775e-16 
-0.0008734772258233085 -0.0005043023114652707 2.552892500933643e-17 
-0.0008734772258243179 -0.0005043023114672604 0.0 
-0.0008734772258203509 -0.000504302311454267 0.0 
-0.0008734772258223984 -0.0005043023114558165 -4.651244928360259e-17 
-0.0008734772258214844 -0.0005043023114570898 -1.8257874931336013e-17 
-0.0008734772258221516 -0.0005043023114588754 -2.656352079962058e-16 
-0.0008734772258216944 -0.0005043023114612365 -3.4599889971336724e-16 
-0.0008734772258223748 -0.0005043023114623084 5.070259774650991e-16 
-0.0008734772258229501 -0.0005043023114627657 1.2431927945207606e-15 
-0.0008734772258224159 -0.0005043023114637471 1.582986072645739e-17 
-0.0008734772258232875 -0.0005043023114652317 3.1116258871281866e-16 
-0.0008734772258224686 -0.0005043023114656255 -2.271246008569568e-16 
-0.0008734772258219246 -0.0005043023114666106 0.0 
-0.0008734772258217643 -0.0005043023114525301 0.0 
-0.0008734772258223618 -0.0005043023114550177 6.427921796718253e-16 
-0.0008734772258225056 -0.0005043023114577734 9.571252664681347e-16 
-0.0008734772258219817 -0.0005043023114580429 -3.139887692068154e-17 
-0.0008734772258227096 -0.0005043023114600988 -3.0057194745680016e-17 
-0.0008734772258215838 -0.0005043023114611825 2.711260548329488e-16 
-0.0008734772258222155 -0.0005043023114632772 -4.567753840836031e-16 
-0.0008734772258214363 -0.0005043023114635493 5.129050839754001e-16 
-0.0008734772258211559 -0.0005043023114660282 -8.187555440343695e-16 
-0.0008734772258217689 -0.0005043023114657012 -3.2500467198838264e-16 
-0.000873477225821593 -0.0005043023114658045 0.0 
-0.0008734772258192149 -0.0005043023114525953 0.0 
-0.0008734772258187967 -0.0005043023114542052 -5.661258674232144e-16 
-0.000873477225819786 -0.0005043023114571451 9.866027707084162e-16 
-0.000873477225819945 -0.0005043023114581493 9.879161409218096e-16 
-0.0008734772258187219 -0.0005043023114592354 -4.377584906533364e-18 
-0.0008734772258201526 -0.0005043023114619505 5.952131327059802e-16 
-0.0008734772258196375 -0.0005043023114617243 7.620656466664349e-17 
-0.000873477225820421 -0.0005043023114635054 -8.711223303010612e-16 
-0.0008734772258206087 -0.000504302311465315 -3.832847030263903e-16 
-0.0008734772258209067 -0.0005043023114652103 1.5471388183230975e-16 
-0.0008734772258205134 -0.0005043023114678745 0.0 
-0.0008734772258187038 -0.0005043023114553347 0.0 
-0.0008734772258186618 -0.0005043023114542992 8.490643773020399e-16 
-0.0008734772258181468 -0.0005043023114563709 -8.32719648762894e-16 
-0.0008734772258188615 -0.0005043023114590452 2.809603610810956e-16 
-0.0008734772258193185 -0.0005043023114595918 -7.151474855005143e-16 
-0.0008734772258185418 -0.0005043023114597555 1.923146204711272e-16 
-0.0008734772258196539 -0.000504302311461733 -2.3133443318321394e-16 
-0.0008734772258197611 -0.000504302311463332 -3.1851365394171086e-16 
-0.000873477225818553 -0.0005043023114643883 -5.303230037000547e-17 
-0.000873477225818794 -0.0005043023114657802 8.338370311837647e-17 
-0.0008734772258205216 -0.0005043023114673708 0.0 
-0.0008734772258187808 -0.0005043023114562283 0.0 
-0.0008734772258179213 -0.0005043023114550373 0.0 
-0.0008734772258182552 -0.0005043023114568447 0.0 
-0.0008734772258184213 -0.0005043023114579785 0.0 
-0.0008734772258186939 -0.0005043023114589067 0.0 
-0.0008734772258182849 -0.0005043023114607955 0.0 
-0.0008734772258178516 -0.0005043023114611496 0.0 
-0.0008734772258168926 -0.0005043023114624382 0.0 
-0.0008734772258162489 -0.000504302311464741 0.0 
-0.0008734772258176482 -0.000504302311465876 0.0 
-0.0008734772258182572 -0.0005043023114645391 0.0 
-0.0008829525022148939 -0.0005097728648283604 0.0 
-0.0008829525022134949 -0.0005097728648309692 0.0 
-0.0008829525022145293 -0.0005097728648312723 0.0 
-0.000882952502213514 -0.0005097728648321317 0.0 
-0.0008829525022130213 -0.0005097728648346163 0.0 
-0.000882952502211733 -0.0005097728648334711 0.0 
-0.0008829525022129313 -0.0005097728648343238 0.0 
-0.0008829525022120473 -0.0005097728648355738 0.0 
-0.0008829525022111271 -0.0005097728648367575 0.0 
-0.0008829525022121525 -0.0005097728648390877 0.0 
-0.0008829525022126682 -0.0005097728648390507 0.0 
-0.0008829525022118503 -0.0005097728648288779 0.0 
-0.0008829525022139372 -0.0005097728648299219 -4.057192524705844e-16 
-0.0008829525022132599 -0.0005097728648319762 -1.8213367251073353e-17 
-0.0008829525022114644 -0.0005097728648322703 3.4480641309403953e-17 
-0.0008829525022113265 -0.0005097728648333121 -3.39352449175233e-16 
-0.0008829525022112452 -0.0005097728648337043 1.6021074957255735e-16 
-0.0008829525022104099 -0.000509772864834339 2.388031240967428e-16 
-0.0008829525022107763 -0.0005097728648357099 4.055752526013655e-16 
-0.00088295250221068 -0.0005097728648372575 -3.878636439541878e-16 
-0.0008829525022111406 -0.000509772864837836 6.91941980103775e-17 
-0.000882952502211366 -0.0005097728648385611 0.0 
-0.0008829525022119454 -0.0005097728648283982 0.0 
-0.00088295250221143 -0.0005097728648305366 1.6333647207973515e-17 
-0.0008829525022115394 -0.0005097728648311263 -2.8812721158068854e-16 
-0.0008829525022113696 -0.0005097728648326757 -7.462459779866795e-16 
-0.0008829525022110353 -0.0005097728648335085 -2.2503133904679017e-16 
-0.0008829525022111648 -0.0005097728648342381 2.74567278094665e-16 
-0.0008829525022104288 -0.000509772864835077 -6.720026759667198e-16 
-0.0008829525022107815 -0.0005097728648361107 1.1627513809827933e-16 
-0.0008829525022103706 -0.0005097728648376849 8.843140882083789e-16 
-0.0008829525022098432 -0.0005097728648380528 1.6485189437554398e-16 
-0.0008829525022103522 -0.000509772864838878 0.0 
-0.0008829525022098253 -0.000509772864828481 0.0 
-0.0008829525022110369 -0.000509772864829231 -1.2546372438598964e-16 
-0.0008829525022107735 -0.0005097728648312155 -4.355119531132639e-16 
-0.0008829525022100913 -0.0005097728648324418 -1.997300587353198e-16 
-0.0008829525022096131 -0.0005097728648332455 -4.451046765907417e-16 
-0.0008829525022093933 -0.000509772864834728 -2.7753697712482724e-16 
-0.0008829525022096494 -0.0005097728648352796 -5.109952489204468e-16 
-0.0008829525022089968 -0.0005097728648360363 -1.3924637872741292e-16 
-0.0008829525022099045 -0.0005097728648369204 1.3722139879567624e-16 
-0.0008829525022101613 -0.0005097728648383263 -3.1651834164908416e-16 
-0.0008829525022089861 -0.0005097728648385183 0.0 
-0.0008829525022093697 -0.0005097728648280649 0.0 
-0.0008829525022086093 -0.0005097728648295458 -8.703860463240763e-17 
-0.0008829525022091575 -0.0005097728648306421 -5.282689879002872e-16 
-0.0008829525022094789 -0.0005097728648323431 -3.972321422115832e-16 
-0.0008829525022092899 -0.0005097728648330382 -2.664619640797774e-16 
-0.0008829525022091031 -0.0005097728648340747 -7.985816848234191e-17 
-0.000882952502208482 -0.0005097728648348667 -7.348068091402468e-18 
-0.0008829525022090302 -0.0005097728648362108 -3.1209134740471276e-16 
-0.0008829525022093423 -0.0005097728648374395 -1.6346653982793682e-16 
-0.0008829525022089329 -0.0005097728648379203 8.472005349094178e-17 
-0.0008829525022096131 -0.0005097728648385074 0.0 
-0.0008829525022083091 -0.000509772864829284 0.0 
-0.0008829525022093912 -0.0005097728648284418 1.5329703537878133e-17 
-0.0008829525022087994 -0.0005097728648311166 -4.2596584783583836e-16 
-0.0008829525022079788 -0.0005097728648314836 -4.866199147164979e-16 
-0.0008829525022078477 -0.0005097728648327635 1.5776077862299103e-16 
-0.0008829525022074947 -0.0005097728648338559 -1.2117869146801341e-16 
-0.0008829525022080952 -0.0005097728648342814 2.6602733520785754e-16 
-0.0008829525022085882 -0.0005097728648359741 -6.462282276406732e-17 
-0.0008829525022078476 -0.0005097728648368823 -9.537233518899364e-17 
-0.0008829525022079274 -0.0005097728648383204 -7.225717404147324e-16 
-0.000882952502208011 -0.0005097728648391553 0.0 
-0.0008829525022067539 -0.0005097728648276168 0.0 
-0.0008829525022069203 -0.0005097728648288538 2.0903606242873496e-16 
-0.000882952502208 -0.0005097728648303206 -2.815893452372516e-16 
-0.000882952502207076 -0.0005097728648310038 -5.341929805161173e-16 
-0.0008829525022073686 -0.0005097728648323585 -2.2561021035532775e-17 
-0.0008829525022072201 -0.0005097728648339054 1.0651387413728491e-16 
-0.0008829525022068322 -0.0005097728648342204 5.343533526128149e-16 
-0.0008829525022074113 -0.0005097728648358425 6.837759890843296e-16 
-0.0008829525022068091 -0.0005097728648370412 -3.3061637696211933e-16 
-0.0008829525022064749 -0.0005097728648377637 2.0802857803887812e-17 
-0.0008829525022067023 -0.0005097728648385583 0.0 
-0.0008829525022068544 -0.000509772864826423 0.0 
-0.0008829525022064896 -0.0005097728648280419 3.855384213679771e-16 
-0.0008829525022072836 -0.0005097728648298727 6.220230684503647e-16 
-0.0008829525022068177 -0.0005097728648313733 -4.916311895906611e-16 
-0.0008829525022069514 -0.0005097728648312226 -4.422013807461036e-16 
-0.0008829525022067801 -0.0005097728648339848 2.880682153042179e-17 
-0.0008829525022060251 -0.0005097728648343594 -2.1945412966189911e-16 
-0.0008829525022059192 -0.0005097728648354172 -3.4306622971690623e-16 
-0.000882952502206573 -0.0005097728648365425 -3.9954839603087194e-16 
-0.0008829525022056886 -0.0005097728648375073 -2.4125482250716966e-16 
-0.0008829525022060758 -0.0005097728648384778 0.0 
-0.000882952502204214 -0.0005097728648246977 0.0 
-0.0008829525022055985 -0.0005097728648270212 2.672083323672444e-16 
-0.0008829525022051901 -0.000509772864828669 3.5411731944206704e-16 
-0.0008829525022048387 -0.0005097728648311953 -1.3362671712239323e-16 
-0.0008829525022049692 -0.00050977286483105 3.0011919251299614e-17 
-0.0008829525022046764 -0.0005097728648334081 3.092223371317269e-16 
-0.0008829525022041883 -0.0005097728648343835 -4.856388102064331e-16 
-0.0008829525022045164 -0.0005097728648353539 -4.588079540385325e-16 
-0.000882952502204465 -0.0005097728648367388 -2.257769177743001e-16 
-0.0008829525022049021 -0.000509772864838059 -6.272826322492145e-16 
-0.000882952502205195 -0.0005097728648385705 0.0 
-0.0008829525022031451 -0.0005097728648250312 0.0 
-0.0008829525022032366 -0.0005097728648263491 3.8467199240605025e-16 
-0.0008829525022034659 -0.0005097728648285189 -1.611913400162627e-16 
-0.000882952502204345 -0.0005097728648305624 4.4332353651468396e-16 
-0.0008829525022032574 -0.0005097728648314346 -4.040826046525931e-16 
-0.0008829525022035894 -0.0005097728648320158 1.0012408431019766e-16 
-0.0008829525022043954 -0.0005097728648339732 -5.778113715809713e-16 
-0.0008829525022040448 -0.0005097728648358613 2.070449059151256e-16 
-0.0008829525022039022 -0.0005097728648366884 7.368708201911089e-17 
-0.0008829525022036102 -0.0005097728648373323 2.1608479019631963e-16 
-0.0008829525022038332 -0.0005097728648385274 0.0 
-0.0008829525022019906 -0.0005097728648252657 0.0 
-0.0008829525022016399 -0.00050977286482636 0.0 
-0.0008829525022018835 -0.0005097728648282052 0.0 
-0.0008829525022015724 -0.0005097728648304393 0.0 
-0.0008829525022029971 -0.000509772864831661 0.0 
-0.0008829525022018237 -0.0005097728648316747 0.0 
-0.0008829525022019962 -0.0005097728648334182 0.0 
-0.0008829525022030508 -0.0005097728648362262 0.0 
-0.0008829525022027476 -0.000509772864836929 0.0 
-0.0008829525022028226 -0.0005097728648373829 0.0 
-0.0008829525022021951 -0.0005097728648386592 0.0 
-0.0008995660861182442 -0.0005193647219675086 0.0 
-0.0008995660861186653 -0.0005193647219686823 0.0 
-0.0008995660861182926 -0.000519364721969937 0.0 
-0.0008995660861174898 -0.0005193647219717347 0.0 
-0.0008995660861168223 -0.0005193647219724543 0.0 
-0.000899566086117171 -0.0005193647219723231 0.0 
-0.0008995660861171174 -0.0005193647219746499 0.0 
-0.0008995660861175444 -0.0005193647219748108 0.0 
-0.0008995660861166423 -0.0005193647219756777 0.0 
-0.0008995660861174089 -0.0005193647219772546 0.0 
-0.0008995660861163059 -0.0005193647219779677 0.0 
-0.0008995660861177031 -0.0005193647219670787 0.0 
-0.0008995660861168895 -0.0005193647219685401 -3.732171153932559e-17 
-0.0008995660861168416 -0.0005193647219703823 -1.2440188587267424e-16 
-0.0008995660861162255 -0.0005193647219711531 -2.7347007477822055e-16 
-0.0008995660861173983 -0.0005193647219712367 -3.9016154415064784e-16 
-0.0008995660861163249 -0.0005193647219732402 3.154197284019799e-16 
-0.000899566086116436 -0.0005193647219733432 6.355033218815968e-17 
-0.0008995660861162921 -0.0005193647219747978 -3.1153081836756024e-18 
-0.0008995660861165606 -0.0005193647219761335 2.891560254152369e-16 
-0.0008995660861160191 -0.0005193647219767677 1.2140376457108365e-17 
-0.0008995660861175281 -0.0005193647219789983 0.0 
-0.0008995660861159991 -0.0005193647219671073 0.0 
-0.0008995660861161052 -0.000519364721968985 -6.401726608695279e-16 
-0.0008995660861151755 -0.0005193647219701874 -3.3960606948866064e-16 
-0.0008995660861151313 -0.0005193647219707845 -6.55860418430062e-18 
-0.0008995660861150779 -0.0005193647219720643 -5.654521786842148e-16 
-0.0008995660861150227 -0.0005193647219718145 4.270447938155707e-17 
-0.0008995660861159546 -0.0005193647219735887 -2.2602533466365766e-16 
-0.0008995660861155006 -0.0005193647219746371 1.434006701218427e-16 
-0.0008995660861152309 -0.0005193647219760877 1.7881636444972152e-16 
-0.0008995660861151615 -0.0005193647219770162 4.789331872796893e-16 
-0.0008995660861154566 -0.0005193647219783494 0.0 
-0.0008995660861139692 -0.0005193647219671223 0.0 
-0.0008995660861155792 -0.0005193647219689054 -2.6406792763438043e-16 
-0.0008995660861158383 -0.0005193647219697445 -4.485482969665893e-16 
-0.0008995660861140308 -0.0005193647219712032 -7.250726748304272e-16 
-0.0008995660861139767 -0.0005193647219722877 -3.4839382525344773e-16 
-0.0008995660861135023 -0.0005193647219720082 -1.4031838352165184e-16 
-0.0008995660861142188 -0.0005193647219737335 -4.697810925237503e-16 
-0.0008995660861142123 -0.0005193647219750575 -2.1654141155814138e-16 
-0.000899566086114083 -0.0005193647219763928 -2.0804938086697797e-17 
-0.0008995660861146462 -0.0005193647219765587 -2.2135549357253096e-17 
-0.0008995660861148525 -0.0005193647219787428 0.0 
-0.0008995660861139925 -0.0005193647219665943 0.0 
-0.0008995660861142201 -0.0005193647219685429 -2.7815529399635567e-16 
-0.0008995660861148559 -0.0005193647219690592 -3.141094161948964e-16 
-0.0008995660861138371 -0.0005193647219712748 -4.4388166856003324e-16 
-0.000899566086114083 -0.0005193647219726486 -2.507403324911899e-16 
-0.000899566086113598 -0.0005193647219724028 -1.6648689912931924e-16 
-0.0008995660861135722 -0.0005193647219743702 -3.4731270995179786e-16 
-0.0008995660861135805 -0.0005193647219750959 -4.9486624607390073e-17 
-0.000899566086114015 -0.0005193647219761674 -2.1574377445289174e-17 
-0.000899566086114205 -0.0005193647219772802 -1.1921760586454805e-16 
-0.0008995660861139751 -0.0005193647219779524 0.0 
-0.000899566086111487 -0.0005193647219661981 0.0 
-0.0008995660861121819 -0.0005193647219681103 -1.6229048754566034e-16 
-0.0008995660861122577 -0.0005193647219685473 -4.00204777167494e-16 
-0.0008995660861113082 -0.0005193647219697362 -5.029500772065929e-16 
-0.0008995660861128102 -0.0005193647219723785 -5.303333856043864e-16 
-0.0008995660861126895 -0.0005193647219727593 -1.6388471150733432e-16 
-0.000899566086112257 -0.0005193647219736825 1.9004617168315904e-16 
-0.0008995660861127406 -0.0005193647219755061 -3.4080512786579293e-16 
-0.0008995660861125025 -0.0005193647219750936 -8.651539128318713e-17 
-0.0008995660861132189 -0.0005193647219763882 -2.717652935567071e-16 
-0.000899566086113582 -0.0005193647219775717 0.0 
-0.0008995660861113802 -0.0005193647219661555 0.0 
-0.000899566086112332 -0.0005193647219672687 1.3211535726818463e-16 
-0.0008995660861128646 -0.0005193647219682669 -2.698155679881151e-16 
-0.0008995660861112877 -0.0005193647219697819 -2.3774321311966445e-16 
-0.0008995660861109084 -0.0005193647219712595 -2.687568207201481e-16 