# vtk DataFile Version 2.0 
FEM simulated result 
ASCII 
DATASET UNSTRUCTURED_GRID 
POINTS 726 float 
-100.0 -100.0 0.0 
-80.0 -100.0 0.0 
-60.0 -100.0 0.0 
-40.0 -100.0 0.0 
-20.0 -100.0 0.0 
0.0 -100.0 0.0 
20.0 -100.0 0.0 
40.0 -100.0 0.0 
60.0 -100.0 0.0 
80.0 -100.0 0.0 
100.0 -100.0 0.0 
-100.0 -80.0 0.0 
-80.0 -80.0 0.0 
-60.0 -80.0 0.0 
-40.0 -80.0 0.0 
-20.0 -80.0 0.0 
0.0 -80.0 0.0 
20.0 -80.0 0.0 
40.0 -80.0 0.0 
60.0 -80.0 0.0 
80.0 -80.0 0.0 
100.0 -80.0 0.0 
-100.0 -60.0 0.0 
-80.0 -60.0 0.0 
-60.0 -60.0 0.0 
-40.0 -60.0 0.0 
-20.0 -60.0 0.0 
0.0 -60.0 0.0 
20.0 -60.0 0.0 
40.0 -60.0 0.0 
60.0 -60.0 0.0 
80.0 -60.0 0.0 
100.0 -60.0 0.0 
-100.0 -40.0 0.0 
-80.0 -40.0 0.0 
-60.0 -40.0 0.0 
-40.0 -40.0 0.0 
-20.0 -40.0 0.0 
0.0 -40.0 0.0 
20.0 -40.0 0.0 
40.0 -40.0 0.0 
60.0 -40.0 0.0 
80.0 -40.0 0.0 
100.0 -40.0 0.0 
-100.0 -20.0 0.0 
-80.0 -20.0 0.0 
-60.0 -20.0 0.0 
-40.0 -20.0 0.0 
-20.0 -20.0 0.0 
0.0 -20.0 0.0 
20.0 -20.0 0.0 
40.0 -20.0 0.0 
60.0 -20.0 0.0 
80.0 -20.0 0.0 
100.0 -20.0 0.0 
-100.0 0.0 0.0 
-80.0 0.0 0.0 
-60.0 0.0 0.0 
-40.0 0.0 0.0 
-20.0 0.0 0.0 
0.0 0.0 0.0 
20.0 0.0 0.0 
40.0 0.0 0.0 
60.0 0.0 0.0 
80.0 0.0 0.0 
100.0 0.0 0.0 
-100.0 20.0 0.0 
-80.0 20.0 0.0 
-60.0 20.0 0.0 
-40.0 20.0 0.0 
-20.0 20.0 0.0 
0.0 20.0 0.0 
20.0 20.0 0.0 
40.0 20.0 0.0 
60.0 20.0 0.0 
80.0 20.0 0.0 
100.0 20.0 0.0 
-100.0 40.0 0.0 
-80.0 40.0 0.0 
-60.0 40.0 0.0 
-40.0 40.0 0.0 
-20.0 40.0 0.0 
0.0 40.0 0.0 
20.0 40.0 0.0 
40.0 40.0 0.0 
60.0 40.0 0.0 
80.0 40.0 0.0 
100.0 40.0 0.0 
-100.0 60.0 0.0 
-80.0 60.0 0.0 
-60.0 60.0 0.0 
-40.0 60.0 0.0 
-20.0 60.0 0.0 
0.0 60.0 0.0 
20.0 60.0 0.0 
40.0 60.0 0.0 
60.0 60.0 0.0 
80.0 60.0 0.0 
100.0 60.0 0.0 
-100.0 80.0 0.0 
-80.0 80.0 0.0 
-60.0 80.0 0.0 
-40.0 80.0 0.0 
-20.0 80.0 0.0 
0.0 80.0 0.0 
20.0 80.0 0.0 
40.0 80.0 0.0 
60.0 80.0 0.0 
80.0 80.0 0.0 
100.0 80.0 0.0 
-100.0 100.0 0.0 
-80.0 100.0 0.0 
-60.0 100.0 0.0 
-40.0 100.0 0.0 
-20.0 100.0 0.0 
0.0 100.0 0.0 
20.0 100.0 0.0 
40.0 100.0 0.0 
60.0 100.0 0.0 
80.0 100.0 0.0 
100.0 100.0 0.0 
-100.0 -100.0 20.0 
-80.0 -100.0 20.0 
-60.0 -100.0 20.0 
-40.0 -100.0 20.0 
-20.0 -100.0 20.0 
0.0 -100.0 20.0 
20.0 -100.0 20.0 
40.0 -100.0 20.0 
60.0 -100.0 20.0 
80.0 -100.0 20.0 
100.0 -100.0 20.0 
-100.0 -80.0 20.0 
-80.0 -80.0 20.0 
-60.0 -80.0 20.0 
-40.0 -80.0 20.0 
-20.0 -80.0 20.0 
0.0 -80.0 20.0 
20.0 -80.0 20.0 
40.0 -80.0 20.0 
60.0 -80.0 20.0 
80.0 -80.0 20.0 
100.0 -80.0 20.0 
-100.0 -60.0 20.0 
-80.0 -60.0 20.0 
-60.0 -60.0 20.0 
-40.0 -60.0 20.0 
-20.0 -60.0 20.0 
0.0 -60.0 20.0 
20.0 -60.0 20.0 
40.0 -60.0 20.0 
60.0 -60.0 20.0 
80.0 -60.0 20.0 
100.0 -60.0 20.0 
-100.0 -40.0 20.0 
-80.0 -40.0 20.0 
-60.0 -40.0 20.0 
-40.0 -40.0 20.0 
-20.0 -40.0 20.0 
0.0 -40.0 20.0 
20.0 -40.0 20.0 
40.0 -40.0 20.0 
60.0 -40.0 20.0 
80.0 -40.0 20.0 
100.0 -40.0 20.0 
-100.0 -20.0 20.0 
-80.0 -20.0 20.0 
-60.0 -20.0 20.0 
-40.0 -20.0 20.0 
-20.0 -20.0 20.0 
0.0 -20.0 20.0 
20.0 -20.0 20.0 
40.0 -20.0 20.0 
60.0 -20.0 20.0 
80.0 -20.0 20.0 
100.0 -20.0 20.0 
-100.0 0.0 20.0 
-80.0 0.0 20.0 
-60.0 0.0 20.0 
-40.0 0.0 20.0 
-20.0 0.0 20.0 
0.0 0.0 20.0 
20.0 0.0 20.0 
40.0 0.0 20.0 
60.0 0.0 20.0 
80.0 0.0 20.0 
100.0 0.0 20.0 
-100.0 20.0 20.0 
-80.0 20.0 20.0 
-60.0 20.0 20.0 
-40.0 20.0 20.0 
-20.0 20.0 20.0 
0.0 20.0 20.0 
20.0 20.0 20.0 
40.0 20.0 20.0 
60.0 20.0 20.0 
80.0 20.0 20.0 
100.0 20.0 20.0 
-100.0 40.0 20.0 
-80.0 40.0 20.0 
-60.0 40.0 20.0 
-40.0 40.0 20.0 
-20.0 40.0 20.0 
0.0 40.0 20.0 
20.0 40.0 20.0 
40.0 40.0 20.0 
60.0 40.0 20.0 
80.0 40.0 20.0 
100.0 40.0 20.0 
-100.0 60.0 20.0 
-80.0 60.0 20.0 
-60.0 60.0 20.0 
-40.0 60.0 20.0 
-20.0 60.0 20.0 
0.0 60.0 20.0 
20.0 60.0 20.0 
40.0 60.0 20.0 
60.0 60.0 20.0 
80.0 60.0 20.0 
100.0 60.0 20.0 
-100.0 80.0 20.0 
-80.0 80.0 20.0 
-60.0 80.0 20.0 
-40.0 80.0 20.0 
-20.0 80.0 20.0 
0.0 80.0 20.0 
20.0 80.0 20.0 
40.0 80.0 20.0 
60.0 80.0 20.0 
80.0 80.0 20.0 
100.0 80.0 20.0 
-100.0 100.0 20.0 
-80.0 100.0 20.0 
-60.0 100.0 20.0 
-40.0 100.0 20.0 
-20.0 100.0 20.0 
0.0 100.0 20.0 
20.0 100.0 20.0 
40.0 100.0 20.0 
60.0 100.0 20.0 
80.0 100.0 20.0 
100.0 100.0 20.0 
-100.0 -100.0 40.0 
-80.0 -100.0 40.0 
-60.0 -100.0 40.0 
-40.0 -100.0 40.0 
-20.0 -100.0 40.0 
0.0 -100.0 40.0 
20.0 -100.0 40.0 
40.0 -100.0 40.0 
60.0 -100.0 40.0 
80.0 -100.0 40.0 
100.0 -100.0 40.0 
-100.0 -80.0 40.0 
-80.0 -80.0 40.0 
-60.0 -80.0 40.0 
-40.0 -80.0 40.0 
-20.0 -80.0 40.0 
0.0 -80.0 40.0 
20.0 -80.0 40.0 
40.0 -80.0 40.0 
60.0 -80.0 40.0 
80.0 -80.0 40.0 
100.0 -80.0 40.0 
-100.0 -60.0 40.0 
-80.0 -60.0 40.0 
-60.0 -60.0 40.0 
-40.0 -60.0 40.0 
-20.0 -60.0 40.0 
0.0 -60.0 40.0 
20.0 -60.0 40.0 
40.0 -60.0 40.0 
60.0 -60.0 40.0 
80.0 -60.0 40.0 
100.0 -60.0 40.0 
-100.0 -40.0 40.0 
-80.0 -40.0 40.0 
-60.0 -40.0 40.0 
-40.0 -40.0 40.0 
-20.0 -40.0 40.0 
0.0 -40.0 40.0 
20.0 -40.0 40.0 
40.0 -40.0 40.0 
60.0 -40.0 40.0 
80.0 -40.0 40.0 
100.0 -40.0 40.0 
-100.0 -20.0 40.0 
-80.0 -20.0 40.0 
-60.0 -20.0 40.0 
-40.0 -20.0 40.0 
-20.0 -20.0 40.0 
0.0 -20.0 40.0 
20.0 -20.0 40.0 
40.0 -20.0 40.0 
60.0 -20.0 40.0 
80.0 -20.0 40.0 
100.0 -20.0 40.0 
-100.0 0.0 40.0 
-80.0 0.0 40.0 
-60.0 0.0 40.0 
-40.0 0.0 40.0 
-20.0 0.0 40.0 
0.0 0.0 40.0 
20.0 0.0 40.0 
40.0 0.0 40.0 
60.0 0.0 40.0 
80.0 0.0 40.0 
100.0 0.0 40.0 
-100.0 20.0 40.0 
-80.0 20.0 40.0 
-60.0 20.0 40.0 
-40.0 20.0 40.0 
-20.0 20.0 40.0 
0.0 20.0 40.0 
20.0 20.0 40.0 
40.0 20.0 40.0 
60.0 20.0 40.0 
80.0 20.0 40.0 
100.0 20.0 40.0 
-100.0 40.0 40.0 
-80.0 40.0 40.0 
-60.0 40.0 40.0 
-40.0 40.0 40.0 
-20.0 40.0 40.0 
0.0 40.0 40.0 
20.0 40.0 40.0 
40.0 40.0 40.0 
60.0 40.0 40.0 
80.0 40.0 40.0 
100.0 40.0 40.0 
-100.0 60.0 40.0 
-80.0 60.0 40.0 
-60.0 60.0 40.0 
-40.0 60.0 40.0 
-20.0 60.0 40.0 
0.0 60.0 40.0 
20.0 60.0 40.0 
40.0 60.0 40.0 
60.0 60.0 40.0 
80.0 60.0 40.0 
100.0 60.0 40.0 
-100.0 80.0 40.0 
-80.0 80.0 40.0 
-60.0 80.0 40.0 
-40.0 80.0 40.0 
-20.0 80.0 40.0 
0.0 80.0 40.0 
20.0 80.0 40.0 
40.0 80.0 40.0 
60.0 80.0 40.0 
80.0 80.0 40.0 
100.0 80.0 40.0 
-100.0 100.0 40.0 
-80.0 100.0 40.0 
-60.0 100.0 40.0 
-40.0 100.0 40.0 
-20.0 100.0 40.0 
0.0 100.0 40.0 
20.0 100.0 40.0 
40.0 100.0 40.0 
60.0 100.0 40.0 
80.0 100.0 40.0 
100.0 100.0 40.0 
-100.0 -100.0 60.0 
-80.0 -100.0 60.0 
-60.0 -100.0 60.0 
-40.0 -100.0 60.0 
-20.0 -100.0 60.0 
0.0 -100.0 60.0 
20.0 -100.0 60.0 
40.0 -100.0 60.0 
60.0 -100.0 60.0 
80.0 -100.0 60.0 
100.0 -100.0 60.0 
-100.0 -80.0 60.0 
-80.0 -80.0 60.0 
-60.0 -80.0 60.0 
-40.0 -80.0 60.0 
-20.0 -80.0 60.0 
0.0 -80.0 60.0 
20.0 -80.0 60.0 
40.0 -80.0 60.0 
60.0 -80.0 60.0 
80.0 -80.0 60.0 
100.0 -80.0 60.0 
-100.0 -60.0 60.0 
-80.0 -60.0 60.0 
-60.0 -60.0 60.0 
-40.0 -60.0 60.0 
-20.0 -60.0 60.0 
0.0 -60.0 60.0 
20.0 -60.0 60.0 
40.0 -60.0 60.0 
60.0 -60.0 60.0 
80.0 -60.0 60.0 
100.0 -60.0 60.0 
-100.0 -40.0 60.0 
-80.0 -40.0 60.0 
-60.0 -40.0 60.0 
-40.0 -40.0 60.0 
-20.0 -40.0 60.0 
0.0 -40.0 60.0 
20.0 -40.0 60.0 
40.0 -40.0 60.0 
60.0 -40.0 60.0 
80.0 -40.0 60.0 
100.0 -40.0 60.0 
-100.0 -20.0 60.0 
-80.0 -20.0 60.0 
-60.0 -20.0 60.0 
-40.0 -20.0 60.0 
-20.0 -20.0 60.0 
0.0 -20.0 60.0 
20.0 -20.0 60.0 
40.0 -20.0 60.0 
60.0 -20.0 60.0 
80.0 -20.0 60.0 
100.0 -20.0 60.0 
-100.0 0.0 60.0 
-80.0 0.0 60.0 
-60.0 0.0 60.0 
-40.0 0.0 60.0 
-20.0 0.0 60.0 
0.0 0.0 60.0 
20.0 0.0 60.0 
40.0 0.0 60.0 
60.0 0.0 60.0 
80.0 0.0 60.0 
100.0 0.0 60.0 
-100.0 20.0 60.0 
-80.0 20.0 60.0 
-60.0 20.0 60.0 
-40.0 20.0 60.0 
-20.0 20.0 60.0 
0.0 20.0 60.0 
20.0 20.0 60.0 
40.0 20.0 60.0 
60.0 20.0 60.0 
80.0 20.0 60.0 
100.0 20.0 60.0 
-100.0 40.0 60.0 
-80.0 40.0 60.0 
-60.0 40.0 60.0 
-40.0 40.0 60.0 
-20.0 40.0 60.0 
0.0 40.0 60.0 
20.0 40.0 60.0 
40.0 40.0 60.0 
60.0 40.0 60.0 
80.0 40.0 60.0 
100.0 40.0 60.0 
-100.0 60.0 60.0 
-80.0 60.0 60.0 
-60.0 60.0 60.0 
-40.0 60.0 60.0 
-20.0 60.0 60.0 
0.0 60.0 60.0 
20.0 60.0 60.0 
40.0 60.0 60.0 
60.0 60.0 60.0 
80.0 60.0 60.0 
100.0 60.0 60.0 
-100.0 80.0 60.0 
-80.0 80.0 60.0 
-60.0 80.0 60.0 
-40.0 80.0 60.0 
-20.0 80.0 60.0 
0.0 80.0 60.0 
20.0 80.0 60.0 
40.0 80.0 60.0 
60.0 80.0 60.0 
80.0 80.0 60.0 
100.0 80.0 60.0 
-100.0 100.0 60.0 
-80.0 100.0 60.0 
-60.0 100.0 60.0 
-40.0 100.0 60.0 
-20.0 100.0 60.0 
0.0 100.0 60.0 
20.0 100.0 60.0 
40.0 100.0 60.0 
60.0 100.0 60.0 
80.0 100.0 60.0 
100.0 100.0 60.0 
-100.0 -100.0 80.0 
-80.0 -100.0 80.0 
-60.0 -100.0 80.0 
-40.0 -100.0 80.0 
-20.0 -100.0 80.0 
0.0 -100.0 80.0 
20.0 -100.0 80.0 
40.0 -100.0 80.0 
60.0 -100.0 80.0 
80.0 -100.0 80.0 
100.0 -100.0 80.0 
-100.0 -80.0 80.0 
-80.0 -80.0 80.0 
-60.0 -80.0 80.0 
-40.0 -80.0 80.0 
-20.0 -80.0 80.0 
0.0 -80.0 80.0 
20.0 -80.0 80.0 
40.0 -80.0 80.0 
60.0 -80.0 80.0 
80.0 -80.0 80.0 
100.0 -80.0 80.0 
-100.0 -60.0 80.0 
-80.0 -60.0 80.0 
-60.0 -60.0 80.0 
-40.0 -60.0 80.0 
-20.0 -60.0 80.0 
0.0 -60.0 80.0 
20.0 -60.0 80.0 
40.0 -60.0 80.0 
60.0 -60.0 80.0 
80.0 -60.0 80.0 
100.0 -60.0 80.0 
-100.0 -40.0 80.0 
-80.0 -40.0 80.0 
-60.0 -40.0 80.0 
-40.0 -40.0 80.0 
-20.0 -40.0 80.0 
0.0 -40.0 80.0 
20.0 -40.0 80.0 
40.0 -40.0 80.0 
60.0 -40.0 80.0 
80.0 -40.0 80.0 
100.0 -40.0 80.0 
-100.0 -20.0 80.0 
-80.0 -20.0 80.0 
-60.0 -20.0 80.0 
-40.0 -20.0 80.0 
-20.0 -20.0 80.0 
0.0 -20.0 80.0 
20.0 -20.0 80.0 
40.0 -20.0 80.0 
60.0 -20.0 80.0 
80.0 -20.0 80.0 
100.0 -20.0 80.0 
-100.0 0.0 80.0 
-80.0 0.0 80.0 
-60.0 0.0 80.0 
-40.0 0.0 80.0 
-20.0 0.0 80.0 
0.0 0.0 80.0 
20.0 0.0 80.0 
40.0 0.0 80.0 
60.0 0.0 80.0 
80.0 0.0 80.0 
100.0 0.0 80.0 
-100.0 20.0 80.0 
-80.0 20.0 80.0 
-60.0 20.0 80.0 
-40.0 20.0 80.0 
-20.0 20.0 80.0 
0.0 20.0 80.0 
20.0 20.0 80.0 
40.0 20.0 80.0 
60.0 20.0 80.0 
80.0 20.0 80.0 
100.0 20.0 80.0 
-100.0 40.0 80.0 
-80.0 40.0 80.0 
-60.0 40.0 80.0 
-40.0 40.0 80.0 
-20.0 40.0 80.0 
0.0 40.0 80.0 
20.0 40.0 80.0 
40.0 40.0 80.0 
60.0 40.0 80.0 
80.0 40.0 80.0 
100.0 40.0 80.0 
-100.0 60.0 80.0 
-80.0 60.0 80.0 
-60.0 60.0 80.0 
-40.0 60.0 80.0 
-20.0 60.0 80.0 
0.0 60.0 80.0 
20.0 60.0 80.0 
40.0 60.0 80.0 
60.0 60.0 80.0 
80.0 60.0 80.0 
100.0 60.0 80.0 
-100.0 80.0 80.0 
-80.0 80.0 80.0 
-60.0 80.0 80.0 
[...]
POINT_DATA 726 
VECTORS displacement float 
LOOKUP_TABLE default 
-0.0016695827319268234 -2.859391691533685e-16 0.0 
-0.001669582731926747 -1.9314672112148144e-16 0.0 
-0.0016695827319268119 7.946835835056893e-17 0.0 
-0.0016695827319269329 3.8813748333009234e-16 0.0 
-0.0016695827319268299 4.841296435017169e-16 0.0 
-0.0016695827319268383 6.384417718776671e-16 0.0 
-0.0016695827319268346 7.874336003534621e-16 0.0 
-0.0016695827319269086 9.324473706631485e-16 0.0 
-0.0016695827319268743 1.0365010869517773e-15 0.0 
-0.001669582731926895 1.3014317649597736e-15 0.0 
-0.001669582731927002 1.3421441418654693e-15 0.0 
-0.001669582731927021 -4.380667953128572e-16 0.0 
-0.0016695827319271443 -1.4000202042447344e-16 3.2384812202057785e-17 
-0.0016695827319272252 1.0377319764789893e-16 6.189581473552146e-17 
-0.0016695827319271716 4.723244711884042e-16 9.570130291607842e-17 
-0.0016695827319270762 4.3210619451749227e-16 2.3218528460893594e-17 
-0.0016695827319269524 5.545674565349858e-16 -4.4037375795089216e-17 
-0.0016695827319269051 9.362943559600028e-16 -2.1684951349649863e-17 
-0.0016695827319270979 9.756324612090723e-16 -5.443232588620733e-17 
-0.001669582731927091 1.0299967731332164e-15 -4.984266966920621e-17 
-0.001669582731927132 1.3182297070980383e-15 -3.631763041494026e-17 
-0.0016695827319271404 1.539488814376633e-15 0.0 
-0.0016695827319276341 -2.3435938969826715e-16 0.0 
-0.001669582731927586 -1.32076951993179e-16 2.97690268513811e-17 
-0.0016695827319274368 1.539289316558779e-16 1.4934271641355826e-16 
-0.0016695827319273544 4.10219909528656e-16 1.2345753932027412e-17 
-0.001669582731927464 4.279185685219341e-16 -6.154761679468003e-17 
-0.0016695827319274158 5.574119441850985e-16 -3.0167298408897763e-17 
-0.0016695827319274223 8.234880195234084e-16 6.931582691332428e-18 
-0.0016695827319273726 9.966446008311041e-16 -7.266319043373843e-17 
-0.0016695827319275346 1.1314591779775549e-15 -4.1023682005510746e-17 
-0.001669582731927409 1.3557177050692254e-15 2.70030619590193e-17 
-0.001669582731927373 1.4859881504362287e-15 0.0 
-0.001669582731927549 -4.427526924505674e-16 0.0 
-0.0016695827319274865 -4.4548438944152654e-17 7.643986850819134e-17 
-0.0016695827319274958 6.092792761133658e-17 1.2569198391311217e-16 
-0.0016695827319276515 4.415174292426554e-16 1.120613978746082e-16 
-0.0016695827319276096 4.710404097869945e-16 7.013416209854481e-17 
-0.0016695827319275585 5.27517234166405e-16 -5.021466684249726e-17 
-0.0016695827319274797 8.115287867356739e-16 -1.4493693879877244e-16 
-0.0016695827319275992 1.0143170267289589e-15 -7.402634868868997e-17 
-0.0016695827319274834 1.1787002100612793e-15 -1.2355249489217613e-16 
-0.0016695827319273683 1.2211089840543286e-15 3.7530066029528215e-17 
-0.0016695827319275003 1.5951950969980238e-15 0.0 
-0.0016695827319278284 -3.3909356568788144e-16 0.0 
-0.001669582731927887 -1.8910832934905913e-16 7.463447605180158e-18 
-0.001669582731927919 1.2093830921776154e-16 -3.3379458295886296e-17 
-0.0016695827319277614 3.3044989768065047e-16 1.227512735453697e-16 
-0.0016695827319276638 4.680752051632446e-16 1.9284629978211416e-17 
-0.0016695827319277697 5.454065098273556e-16 3.2819708037748736e-17 
-0.0016695827319277818 7.698555485488146e-16 -6.3135809505180296e-18 
-0.0016695827319278395 1.0206470087587302e-15 -2.1854667415237998e-16 
-0.0016695827319277861 1.0637404345948023e-15 -1.631543182023303e-16 
-0.0016695827319276977 1.4346044888702702e-15 -4.312857387407061e-17 
-0.0016695827319275188 1.58699532937555e-15 0.0 
-0.0016695827319277547 -3.852977943089646e-16 0.0 
-0.0016695827319277326 -1.5732638631687533e-17 5.29491437150067e-18 
-0.0016695827319280021 4.279430980857523e-17 6.294381872251309e-17 
-0.0016695827319280617 3.203215319373217e-16 2.864556143722827e-16 
-0.001669582731927964 3.909632047964288e-16 1.0138318558968843e-16 
-0.0016695827319280511 5.624579720984875e-16 -8.749799590156153e-17 
-0.0016695827319280962 8.326161319006076e-16 -6.661098689726787e-17 
-0.0016695827319279763 9.74051867056347e-16 -6.956845548966116e-17 
-0.001669582731927977 1.1097671052601654e-15 -1.1161198506290423e-16 
-0.0016695827319280529 1.3096214448356693e-15 -2.0610339437428642e-16 
-0.0016695827319279633 1.6436104697448433e-15 0.0 
-0.0016695827319281533 -3.6171637258897217e-16 0.0 
-0.0016695827319281407 -5.1753173469455996e-17 1.8839921634429484e-16 
-0.0016695827319282482 1.024894404043888e-16 1.3484701036697776e-16 
-0.0016695827319280962 2.6652577307308224e-16 6.754420667082824e-17 
-0.0016695827319279579 4.823054427913074e-16 1.0548617355243711e-16 
-0.0016695827319281207 6.04598811913997e-16 6.685170832981024e-17 
-0.0016695827319282567 7.885072907663142e-16 -1.8160614107858246e-16 
-0.0016695827319281175 8.974738037136805e-16 -1.4754854398205435e-16 
-0.0016695827319280437 1.13342912806559e-15 -8.729046426339456e-17 
-0.0016695827319281582 1.3200670087750208e-15 -1.5080297424117783e-17 
-0.0016695827319280418 1.6024238348172e-15 0.0 
-0.001669582731928353 -4.306911103183027e-16 0.0 
-0.001669582731928284 -1.034742511648122e-16 5.98171006446787e-17 
-0.0016695827319284239 1.3432704135482773e-16 -7.860228685065491e-17 
-0.0016695827319284048 1.8916681641997688e-16 7.349284105289346e-17 
-0.0016695827319282298 3.6184641856107083e-16 3.75164723617283e-17 
-0.00166958273192808 7.460645225919558e-16 -4.167082925973631e-18 
-0.0016695827319281012 7.52454877076329e-16 2.0859170458722595e-17 
-0.0016695827319282378 9.424935636293597e-16 -3.7792863064129905e-17 
-0.0016695827319284566 1.2594448036349659e-15 -2.112870005227257e-17 
-0.0016695827319283278 1.3867856956197885e-15 -1.5772335585695953e-16 
-0.0016695827319283712 1.7035964896726832e-15 0.0 
-0.001669582731928465 -2.3657364829782843e-16 0.0 
-0.001669582731928594 -1.9781009551735528e-16 -2.1949499917177572e-17 
-0.001669582731928449 7.910630677587543e-17 1.1590349214615312e-16 
-0.0016695827319283757 2.719902803602148e-16 7.793457648345549e-17 
-0.0016695827319284941 4.0820374061579303e-16 1.7291133458607444e-16 
-0.0016695827319285585 5.475726195775214e-16 -1.4327273980969704e-17 
-0.0016695827319286856 8.520376388378088e-16 -4.7959860911596385e-17 
-0.0016695827319286253 1.113110007289308e-15 -2.563682431217973e-17 
-0.0016695827319286379 1.2038095892772127e-15 7.384282666324379e-17 
-0.0016695827319285156 1.295731745407987e-15 4.358606968196177e-17 
-0.0016695827319284766 1.7665934094707039e-15 0.0 
-0.0016695827319287962 -1.8674860300632254e-16 0.0 
-0.0016695827319286709 -1.8323311658538994e-16 1.0813504029880948e-16 
-0.0016695827319287626 -6.469493099846381e-17 7.584930141254482e-17 
-0.0016695827319286901 1.0919312707230804e-16 9.466351595017069e-18 
-0.001669582731928686 4.304265343584517e-16 5.821521248855864e-17 
-0.001669582731928674 5.876962955535045e-16 -8.598671079902392e-17 
-0.001669582731928715 9.27566684051736e-16 1.9299876404788473e-17 
-0.0016695827319286446 1.124715658445953e-15 7.736579559079222e-17 
-0.0016695827319286002 1.08270027512459e-15 -1.124909441838144e-16 
-0.0016695827319288582 1.235262425860058e-15 -9.815260062324577e-17 
-0.0016695827319288788 1.7412850363888183e-15 0.0 
-0.0016695827319289543 -3.5643658365373965e-16 0.0 
-0.001669582731928975 -7.194410361922687e-17 0.0 
-0.0016695827319289122 -1.6455842385691076e-16 0.0 
-0.0016695827319289738 1.5714998507134515e-16 0.0 
-0.001669582731928987 5.017357014664751e-16 0.0 
-0.001669582731928877 6.122047992141998e-16 0.0 
-0.0016695827319287407 7.39165178103715e-16 0.0 
-0.0016695827319285685 1.1670290783880575e-15 0.0 
-0.0016695827319287235 1.0342484205933797e-15 0.0 
-0.0016695827319290104 1.3724900522216166e-15 0.0 
-0.0016695827319290132 1.631763696996616e-15 0.0 
-0.0015942008559940905 -5.372902580613079e-17 0.0 
-0.0015942008559941755 -2.5921984495908497e-16 0.0 
-0.0015942008559942473 2.1292239978479076e-16 0.0 
-0.0015942008559942473 4.4126297707522454e-16 0.0 
-0.0015942008559943037 4.590068325768202e-16 0.0 
-0.0015942008559942514 5.035085338235997e-16 0.0 
-0.0015942008559941786 7.858929300288404e-16 0.0 
-0.0015942008559940532 9.483599120470589e-16 0.0 
-0.001594200855994073 1.1144920378635333e-15 0.0 
-0.0015942008559940875 1.2598202571538701e-15 0.0 
-0.0015942008559941706 1.4844843046502793e-15 0.0 
-0.0015942008559942842 -1.0033089546899108e-16 0.0 
-0.0015942008559944102 -1.0805801070110256e-16 5.739403161140004e-17 
-0.0015942008559944416 2.5973996957447325e-16 7.567648951663307e-17 
-0.0015942008559943733 3.7259095868720685e-16 6.766459958828164e-18 
-0.0015942008559943063 4.39950420782444e-16 -1.1693283110689955e-17 
-0.0015942008559942942 5.386125182915234e-16 1.7816144681151235e-17 
-0.0015942008559943516 8.32931132134761e-16 1.703622932457612e-17 
-0.001594200855994402 9.37266815885198e-16 -5.811678777353915e-17 
-0.0015942008559944054 1.1412421662497746e-15 -6.705649634401624e-18 
-0.0015942008559944024 1.3061091980145483e-15 -2.121538225205256e-17 
-0.0015942008559943733 1.5783795010086982e-15 0.0 
-0.0015942008559945843 -2.074561427896627e-16 0.0 
-0.0015942008559945132 -2.4786049911218883e-17 6.347103856954295e-17 
-0.001594200855994599 2.3679962547086056e-16 2.5925009964595536e-17 
-0.0015942008559945383 3.276245598299507e-16 6.141891566272226e-17 
-0.0015942008559946049 4.236755075436784e-16 -2.4179032815968437e-17 
-0.0015942008559946203 5.737253719073099e-16 -2.3604995788762194e-17 
-0.0015942008559945728 7.775095418273121e-16 -1.1645427145263987e-16 
-0.0015942008559945544 9.404213139281626e-16 -1.157699839289714e-16 
-0.001594200855994582 1.0806572943805645e-15 1.9051457114390376e-17 
-0.001594200855994662 1.36399157340761e-15 7.32155598370095e-17 
-0.0015942008559947398 1.6754139339687255e-15 0.0 
-0.0015942008559948063 -2.2017768204365702e-16 0.0 
-0.001594200855994821 -1.012854985814984e-16 1.0227588553883843e-16 
-0.0015942008559946834 7.533549633597088e-17 1.4279197609658308e-16 
-0.001594200855994718 3.64036000240018e-16 1.0943895214897888e-16 
-0.0015942008559947686 4.079401123591515e-16 -3.118037171102104e-17 
-0.0015942008559947315 5.824312421225327e-16 1.0072474907462209e-17 
-0.0015942008559948347 8.320245595190583e-16 -7.839637494862043e-17 
-0.0015942008559948794 9.30663570933454e-16 -1.4544655174534172e-16 
-0.001594200855994788 1.1423856179528095e-15 -9.528588480659299e-17 
-0.0015942008559948352 1.3621856222805842e-15 -5.868883798498472e-17 
-0.0015942008559947582 1.5419993098142662e-15 0.0 
-0.0015942008559948879 -3.666524759473692e-16 0.0 
-0.0015942008559948404 -8.869341767475322e-17 9.47193833789651e-17 
-0.0015942008559949772 1.4893121227957842e-16 2.6331789899944148e-17 
-0.0015942008559949494 3.462275374140311e-16 3.507942227477728e-17 
-0.0015942008559949677 4.817634522648247e-16 4.8398906081169426e-17 
-0.0015942008559948749 5.804683783090696e-16 7.703748162744422e-18 
-0.0015942008559948558 8.396857953362543e-16 -7.396600268370974e-17 
-0.001594200855994845 9.868001940364472e-16 -9.225694754302507e-17 
-0.0015942008559949965 1.1555051439776077e-15 -1.56386356724544e-16 
-0.0015942008559950485 1.3745354080782578e-15 -7.983991527353653e-17 
-0.0015942008559949792 1.5495427935636261e-15 0.0 
-0.0015942008559952383 -3.1654157130270683e-16 0.0 
-0.0015942008559953192 -1.2101838239502087e-16 4.727201038229489e-17 
-0.001594200855995154 1.1084577300850048e-16 1.4980819590430354e-16 
-0.0015942008559951411 3.4254410530421986e-16 1.6340788398145915e-16 
-0.0015942008559952264 4.3614588996223476e-16 1.5276377991481217e-16 
-0.001594200855995231 6.029706032254843e-16 -8.7020772734981e-18 
-0.0015942008559952604 8.262193529650317e-16 -1.177894216036453e-16 
-0.001594200855995318 1.0350843237898174e-15 -2.0731972380504862e-16 
-0.001594200855995157 1.138310131360319e-15 -7.409136238275886e-17 
-0.0015942008559951535 1.3328582536868036e-15 -8.219548293967393e-17 
-0.0015942008559952012 1.5330509200921068e-15 0.0 
-0.0015942008559954287 -2.6065591326410805e-16 0.0 
-0.0015942008559954235 -1.652019877288875e-16 5.823568274690361e-17 
-0.0015942008559953495 2.8803370664909186e-17 1.008277296004205e-16 
-0.0015942008559952745 2.945262387714324e-16 9.742166703257633e-17 
-0.0015942008559953202 4.275724685962751e-16 9.892393939528381e-17 
-0.001594200855995211 5.732216505381802e-16 7.489581888082846e-17 
-0.0015942008559952155 8.316071765531527e-16 -8.555421251330473e-17 
-0.0015942008559952277 1.0298010129748999e-15 -1.876397795310495e-16 
-0.0015942008559954397 1.1150739450747052e-15 -7.406796334434495e-17 
-0.0015942008559953343 1.330466505380565e-15 -5.154528652193227e-17 
-0.0015942008559953853 1.5789576404648232e-15 0.0 
-0.0015942008559954803 -2.566310260176105e-16 0.0 
-0.0015942008559956015 -1.0142009667411492e-16 2.867769030374215e-17 
-0.0015942008559955286 -2.5434022510885483e-18 1.4077703253909156e-17 
-0.0015942008559955746 1.8763730974166755e-16 3.148828580436063e-17 
-0.0015942008559956151 3.9257223372249477e-16 4.9470201044121935e-17 
-0.0015942008559956414 6.195837759335358e-16 -3.8933928559368286e-17 
-0.001594200855995574 8.320290528376582e-16 -6.963147700331246e-17 
-0.0015942008559955896 1.0682690208887397e-15 -5.993909078448842e-19 
-0.0015942008559954664 1.112796231711032e-15 5.696991621072519e-19 
-0.0015942008559955353 1.30336671767599e-15 -1.3662627921079815e-16 
-0.0015942008559954853 1.6494183008106068e-15 0.0 
-0.0015942008559957808 -4.419781603915386e-16 0.0 
-0.0015942008559957663 -7.100024410131563e-17 2.2287649913128183e-17 
-0.001594200855995749 1.5835516116713157e-17 7.172039348975749e-17 
-0.001594200855995709 1.2469567330786158e-16 4.364286729924601e-17 
-0.0015942008559956154 3.44050696462827e-16 2.0973647001723817e-16 
-0.001594200855995539 6.80644616519846e-16 5.1193086807588007e-17 
-0.0015942008559957205 8.62313849537749e-16 -1.0835539588923192e-16 
-0.001594200855995628 9.071510270161058e-16 -1.6945149085483205e-17 
-0.0015942008559956646 1.1968042794672231e-15 4.494820536421894e-17 
-0.001594200855995643 1.240968575853478e-15 -2.022423325663578e-19 
-0.0015942008559957708 1.7413192377358457e-15 0.0 
-0.0015942008559960083 -3.72508526323714e-16 0.0 
-0.0015942008559960842 -1.9620738854392102e-16 5.895884467333057e-17 
-0.0015942008559960078 9.400159367790765e-18 1.2488411087260171e-16 
-0.0015942008559958686 5.787116724028804e-17 5.919907420323214e-18 
-0.0015942008559959103 3.925114433480913e-16 8.684317943749429e-18 
-0.001594200855995926 6.529419050758828e-16 -3.7621425547512545e-17 
-0.0015942008559958172 8.502111343975682e-16 -1.6215445786505633e-17 
-0.001594200855995875 9.3091152863237e-16 3.9568068869851617e-17 
-0.0015942008559959048 1.141264090409781e-15 1.8868657275450306e-17 
-0.0015942008559959404 1.3500447539965288e-15 -1.491343214439035e-17 
-0.0015942008559958751 1.6893405374654623e-15 0.0 
-0.0015942008559960245 -2.157984636666714e-16 0.0 
-0.0015942008559961893 -6.974633549479716e-17 0.0 
-0.0015942008559961026 -5.153032189961011e-17 0.0 
-0.00159420085599618 1.2370419474587125e-16 0.0 
-0.0015942008559961065 4.0801037197883823e-16 0.0 
-0.0015942008559960874 5.627794488767564e-16 0.0 
-0.0015942008559960558 7.823089242267111e-16 0.0 
-0.001594200855996251 1.0737635721341544e-15 0.0 
-0.0015942008559962015 1.2148064333068084e-15 0.0 
-0.0015942008559963385 1.3440814311261824e-15 0.0 
-0.001594200855996423 1.6316507851345346e-15 0.0 
-0.0015553805148927173 -3.3399427385750596e-16 0.0 
-0.0015553805148927238 -1.7816647989184605e-16 0.0 
-0.0015553805148926642 2.092258893490723e-16 0.0 
-0.0015553805148927095 2.8874358014654327e-16 0.0 
-0.0015553805148927275 5.031224557537636e-16 0.0 
-0.0015553805148926481 6.101401429784642e-16 0.0 
-0.0015553805148927694 7.554324368918538e-16 0.0 
-0.001555380514892755 1.0487247338582599e-15 0.0 
-0.0015553805148926906 1.1215492461951243e-15 0.0 
-0.0015553805148927965 1.2406830862810073e-15 0.0 
-0.0015553805148929764 1.47013994073659e-15 0.0 
-0.0015553805148931584 -5.053023309366856e-16 0.0 
-0.001555380514893051 -1.6865748705929908e-16 4.1302424098822455e-17 
-0.0015553805148929986 1.4025709447851987e-16 -1.26118956754575e-17 
-0.0015553805148929714 3.5835273363269515e-16 6.4146203096945e-17 
-0.0015553805148929812 4.2209254011026324e-16 -4.124898007451709e-17 
-0.0015553805148930053 5.888631537447523e-16 -3.588265096226675e-17 
-0.0015553805148928502 8.760617830480582e-16 3.8348275422698155e-17 
-0.0015553805148929452 1.0923556719646053e-15 9.65377511043609e-18 
-0.0015553805148929574 1.0882195345310396e-15 -1.083254291387376e-17 
-0.0015553805148929745 1.3380878025746917e-15 -5.501818471823722e-17 
-0.0015553805148929643 1.5855562358913842e-15 0.0 
-0.001555380514893167 -4.1352999592933045e-16 0.0 
-0.0015553805148931937 -2.0259926019322804e-16 8.405139398959058e-17 
-0.0015553805148932325 1.9406823641171556e-16 1.0375894754600223e-16 
-0.001555380514893123 3.1647422882253415e-16 3.591055753294074e-17 
-0.0015553805148931406 4.259101003917938e-16 -5.2699715024333826e-17 
-0.001555380514893185 6.314521621837769e-16 -9.520964375720718e-18 
-0.0015553805148932464 7.9760148430448275e-16 -4.6346185108399725e-17 
-0.001555380514893216 1.0003186047594713e-15 -1.0139819946552341e-16 
-0.0015553805148932544 1.1639488066459554e-15 -9.597058358911001e-18 
-0.0015553805148931983 1.401663002737143e-15 6.055431814600021e-17 
-0.0015553805148931798 1.6276495479306451e-15 0.0 
-0.001555380514893479 -4.499354123369973e-16 0.0 
-0.0015553805148934958 -1.2200203308124126e-16 2.7959681505095145e-17 
-0.0015553805148934051 1.1320806599243814e-16 6.57662340240081e-17 
-0.0015553805148933641 2.699197553175917e-16 1.2067932528669768e-16 
-0.0015553805148933017 4.1964068315005883e-16 5.345773245836638e-19 
-0.0015553805148932555 6.256777610778437e-16 -2.7824852608028384e-17 
-0.0015553805148931998 8.114125104208074e-16 -2.570228122893092e-17 
-0.0015553805148933897 1.0317397354437792e-15 -1.2874963541797725e-16 
-0.0015553805148934058 1.1694101256401419e-15 -1.2135542574660293e-16 
-0.0015553805148935244 1.4324400171947886e-15 -5.20940714535622e-18 
-0.001555380514893572 1.5409177007516072e-15 0.0 
-0.0015553805148935643 -3.629866052312357e-16 0.0 
-0.0015553805148936283 -1.3266631426978865e-16 3.3969547545552547e-17 
-0.0015553805148937395 1.474539467155609e-17 1.0702374378032214e-16 
-0.001555380514893664 2.526216456308428e-16 3.9159204739726727e-17 
-0.0015553805148936686 4.1769767936314824e-16 -4.0948803963836025e-17 
-0.0015553805148936046 5.662710071903489e-16 -3.1602545201341446e-17 
-0.0015553805148935897 8.192424184980753e-16 -2.3403058787281705e-17 
-0.0015553805148936191 1.0630132122207224e-15 -1.513914088390801e-16 
-0.0015553805148936237 1.2119230623447889e-15 -1.044071159494643e-16 
-0.001555380514893615 1.3996666114118192e-15 -4.378250701527729e-17 
-0.001555380514893534 1.5571944675521056e-15 0.0 
-0.0015553805148937959 -3.332687612722368e-16 0.0 
-0.001555380514893839 -9.510261013653698e-19 4.9858743940189646e-17 
-0.0015553805148937603 -1.8561593602687794e-17 2.032573745564425e-17 
-0.0015553805148937699 2.1131304643355952e-16 1.684969216738832e-16 
-0.0015553805148936532 4.790754015660057e-16 9.604984014136939e-17 
-0.001555380514893754 5.23150437212403e-16 1.810085304942853e-17 
-0.001555380514893781 8.38193410086637e-16 -9.54623203920125e-17 
-0.0015553805148938343 1.0214541428738849e-15 -8.150110230001404e-17 
-0.0015553805148937542 1.17762980710967e-15 -1.294603142644811e-16 
-0.001555380514893793 1.3224542917342192e-15 -5.598857773498223e-17 
-0.0015553805148936718 1.5584777953344731e-15 0.0 
-0.0015553805148941092 -2.5637509894959377e-16 0.0 
-0.0015553805148940073 -4.219939804104907e-18 2.0341034723233917e-17 
-0.0015553805148940886 1.0942042343904917e-16 6.002920579167531e-17 
-0.0015553805148940504 2.5544784446895435e-16 7.988973003491764e-17 
-0.0015553805148939448 4.373036489698983e-16 6.2556273428663954e-18 
-0.0015553805148939798 6.447284519459464e-16 8.60994964257447e-17 
-0.0015553805148940745 8.131787252662829e-16 -6.276842984721404e-17 